
Linearized model: Predictions were generated on 08-Sep-2021 at 10:17:56 using OpenFAST, compiled as a 64-bit application using single precision at commit v0.2-640-g054aeb4d-dirty
 linked with  NWTC Subroutine Library; ElastoDyn; InflowWind; AeroDyn; ServoDyn; HydroDyn; MAP++ (<1.20.10>, <Aug-26-2021>)

Description from the FAST input file: Generated with AeroElasticSE FAST driver

Simulation information:
   Simulation time:                     0.0100 s
   Rotor Speed:                         0.7850 rad/s
   Azimuth:                             0.0079 rad
   Wind Speed:                          8.0000 m/s
   Number of continuous states:       102
   Number of discrete states:           0
   Number of constraint states:         0
   Number of inputs:                  190
   Number of outputs:                 268
   Jacobians included in this file?    No

Order of continuous states:
   Row/Column Operating Point                                                   Rotating Frame? Derivative Order Description
   ---------- ---------------                                                   --------------- ---------------- -----------
          1    -5.36344532520E-006                                                     F               2         ED Platform pitch tilt rotation DOF (internal DOF index = DOF_P), rad
          2     7.88660603575E-004                                                     F               2         ED 1st tower fore-aft bending mode DOF (internal DOF index = DOF_TFA1), m
          3     4.72024059296E+000                                                     F               2         ED Variable speed generator DOF (internal DOF index = DOF_GeAz), rad
          4    -1.07262656093E-003                                                     F               2         ED First time derivative of Platform pitch tilt rotation DOF (internal DOF index = DOF_P), rad/s
          5     1.57716140151E-001                                                     F               2         ED First time derivative of 1st tower fore-aft bending mode DOF (internal DOF index = DOF_TFA1), m/s
          6     7.84963190556E-001                                                     F               2         ED First time derivative of Variable speed generator DOF (internal DOF index = DOF_GeAz), rad/s
          7     0.00000000000E+000                                                     F               1         HD ExctnPtfmSg1
          8     0.00000000000E+000                                                     F               1         HD ExctnPtfmSg2
          9     0.00000000000E+000                                                     F               1         HD ExctnPtfmSg3
         10     0.00000000000E+000                                                     F               1         HD ExctnPtfmSg4
         11     0.00000000000E+000                                                     F               1         HD ExctnPtfmSg5
         12     0.00000000000E+000                                                     F               1         HD ExctnPtfmSg6
         13     0.00000000000E+000                                                     F               1         HD ExctnPtfmSg7
         14     0.00000000000E+000                                                     F               1         HD ExctnPtfmSg8
         15     0.00000000000E+000                                                     F               1         HD ExctnPtfmSw1
         16     0.00000000000E+000                                                     F               1         HD ExctnPtfmSw2
         17     0.00000000000E+000                                                     F               1         HD ExctnPtfmHv1
         18     0.00000000000E+000                                                     F               1         HD ExctnPtfmHv2
         19     0.00000000000E+000                                                     F               1         HD ExctnPtfmHv3
         20     0.00000000000E+000                                                     F               1         HD ExctnPtfmHv4
         21     0.00000000000E+000                                                     F               1         HD ExctnPtfmHv5
         22     0.00000000000E+000                                                     F               1         HD ExctnPtfmHv6
         23     0.00000000000E+000                                                     F               1         HD ExctnPtfmHv7
         24     0.00000000000E+000                                                     F               1         HD ExctnPtfmHv8
         25     0.00000000000E+000                                                     F               1         HD ExctnPtfmR1
         26     0.00000000000E+000                                                     F               1         HD ExctnPtfmR2
         27     0.00000000000E+000                                                     F               1         HD ExctnPtfmR3
         28     0.00000000000E+000                                                     F               1         HD ExctnPtfmR4
         29     0.00000000000E+000                                                     F               1         HD ExctnPtfmR5
         30     0.00000000000E+000                                                     F               1         HD ExctnPtfmR6
         31     0.00000000000E+000                                                     F               1         HD ExctnPtfmR7
         32     0.00000000000E+000                                                     F               1         HD ExctnPtfmR8
         33     0.00000000000E+000                                                     F               1         HD ExctnPtfmP1
         34     0.00000000000E+000                                                     F               1         HD ExctnPtfmP2
         35     0.00000000000E+000                                                     F               1         HD ExctnPtfmP3
         36     0.00000000000E+000                                                     F               1         HD ExctnPtfmP4
         37     0.00000000000E+000                                                     F               1         HD ExctnPtfmP5
         38     0.00000000000E+000                                                     F               1         HD ExctnPtfmP6
         39     0.00000000000E+000                                                     F               1         HD ExctnPtfmP7
         40     0.00000000000E+000                                                     F               1         HD ExctnPtfmP8
         41     0.00000000000E+000                                                     F               1         HD ExctnPtfmY1
         42     0.00000000000E+000                                                     F               1         HD ExctnPtfmY2
         43     0.00000000000E+000                                                     F               1         HD RdtnPtfmSg1
         44     0.00000000000E+000                                                     F               1         HD RdtnPtfmSg2
         45     0.00000000000E+000                                                     F               1         HD RdtnPtfmSg3
         46     0.00000000000E+000                                                     F               1         HD RdtnPtfmSg4
         47     0.00000000000E+000                                                     F               1         HD RdtnPtfmSg5
         48     0.00000000000E+000                                                     F               1         HD RdtnPtfmSg6
         49     0.00000000000E+000                                                     F               1         HD RdtnPtfmSg7
         50     0.00000000000E+000                                                     F               1         HD RdtnPtfmSg8
         51     0.00000000000E+000                                                     F               1         HD RdtnPtfmSg9
         52     0.00000000000E+000                                                     F               1         HD RdtnPtfmSg10
         53     0.00000000000E+000                                                     F               1         HD RdtnPtfmSg11
         54     0.00000000000E+000                                                     F               1         HD RdtnPtfmSg12
         55     0.00000000000E+000                                                     F               1         HD RdtnPtfmSg13
         56     0.00000000000E+000                                                     F               1         HD RdtnPtfmSg14
         57     0.00000000000E+000                                                     F               1         HD RdtnPtfmSw1
         58     0.00000000000E+000                                                     F               1         HD RdtnPtfmSw2
         59     0.00000000000E+000                                                     F               1         HD RdtnPtfmSw3
         60     0.00000000000E+000                                                     F               1         HD RdtnPtfmSw4
         61     0.00000000000E+000                                                     F               1         HD RdtnPtfmSw5
         62     0.00000000000E+000                                                     F               1         HD RdtnPtfmSw6
         63     0.00000000000E+000                                                     F               1         HD RdtnPtfmSw7
         64     0.00000000000E+000                                                     F               1         HD RdtnPtfmSw8
         65     0.00000000000E+000                                                     F               1         HD RdtnPtfmSw9
         66     0.00000000000E+000                                                     F               1         HD RdtnPtfmSw10
         67     0.00000000000E+000                                                     F               1         HD RdtnPtfmSw11
         68     0.00000000000E+000                                                     F               1         HD RdtnPtfmSw12
         69     0.00000000000E+000                                                     F               1         HD RdtnPtfmSw13
         70     0.00000000000E+000                                                     F               1         HD RdtnPtfmSw14
         71     0.00000000000E+000                                                     F               1         HD RdtnPtfmHv1
         72     0.00000000000E+000                                                     F               1         HD RdtnPtfmHv2
         73     0.00000000000E+000                                                     F               1         HD RdtnPtfmHv3
         74     0.00000000000E+000                                                     F               1         HD RdtnPtfmHv4
         75     0.00000000000E+000                                                     F               1         HD RdtnPtfmHv5
         76     0.00000000000E+000                                                     F               1         HD RdtnPtfmHv6
         77     0.00000000000E+000                                                     F               1         HD RdtnPtfmR1
         78     0.00000000000E+000                                                     F               1         HD RdtnPtfmR2
         79     0.00000000000E+000                                                     F               1         HD RdtnPtfmR3
         80     0.00000000000E+000                                                     F               1         HD RdtnPtfmR4
         81     0.00000000000E+000                                                     F               1         HD RdtnPtfmR5
         82     0.00000000000E+000                                                     F               1         HD RdtnPtfmR6
         83     0.00000000000E+000                                                     F               1         HD RdtnPtfmR7
         84     0.00000000000E+000                                                     F               1         HD RdtnPtfmR8
         85     0.00000000000E+000                                                     F               1         HD RdtnPtfmR9
         86     0.00000000000E+000                                                     F               1         HD RdtnPtfmR10
         87     0.00000000000E+000                                                     F               1         HD RdtnPtfmP1
         88     0.00000000000E+000                                                     F               1         HD RdtnPtfmP2
         89     0.00000000000E+000                                                     F               1         HD RdtnPtfmP3
         90     0.00000000000E+000                                                     F               1         HD RdtnPtfmP4
         91     0.00000000000E+000                                                     F               1         HD RdtnPtfmP5
         92     0.00000000000E+000                                                     F               1         HD RdtnPtfmP6
         93     0.00000000000E+000                                                     F               1         HD RdtnPtfmP7
         94     0.00000000000E+000                                                     F               1         HD RdtnPtfmP8
         95     0.00000000000E+000                                                     F               1         HD RdtnPtfmP9
         96     0.00000000000E+000                                                     F               1         HD RdtnPtfmP10
         97     0.00000000000E+000                                                     F               1         HD RdtnPtfmY1
         98     0.00000000000E+000                                                     F               1         HD RdtnPtfmY2
         99     0.00000000000E+000                                                     F               1         HD RdtnPtfmY3
        100     0.00000000000E+000                                                     F               1         HD RdtnPtfmY4
        101     0.00000000000E+000                                                     F               1         HD RdtnPtfmY5
        102     0.00000000000E+000                                                     F               1         HD RdtnPtfmY6

Order of continuous state derivatives:
   Row/Column Operating Point                                                   Rotating Frame? Derivative Order Description
   ---------- ---------------                                                   --------------- ---------------- -----------
          1    -1.07262656093E-003                                                     F               2         First time derivative of ED Platform pitch tilt rotation DOF (internal DOF index = DOF_P), rad/s
          2     1.57716140151E-001                                                     F               2         First time derivative of ED 1st tower fore-aft bending mode DOF (internal DOF index = DOF_TFA1), m/s
          3     7.84963190556E-001                                                     F               2         First time derivative of ED Variable speed generator DOF (internal DOF index = DOF_GeAz), rad/s
          4    -1.07226714492E-001                                                     F               2         First time derivative of ED First time derivative of Platform pitch tilt rotation DOF (internal DOF index = DOF_P), rad/s/s
          5     1.57480964661E+001                                                     F               2         First time derivative of ED First time derivative of 1st tower fore-aft bending mode DOF (internal DOF index = DOF_TFA1), m/s/s
          6    -3.55319827795E-002                                                     F               2         First time derivative of ED First time derivative of Variable speed generator DOF (internal DOF index = DOF_GeAz), rad/s/s
          7     0.00000000000E+000                                                     F               1         First time derivative of HD ExctnPtfmSg1/s
          8     0.00000000000E+000                                                     F               1         First time derivative of HD ExctnPtfmSg2/s
          9     0.00000000000E+000                                                     F               1         First time derivative of HD ExctnPtfmSg3/s
         10     0.00000000000E+000                                                     F               1         First time derivative of HD ExctnPtfmSg4/s
         11     0.00000000000E+000                                                     F               1         First time derivative of HD ExctnPtfmSg5/s
         12     0.00000000000E+000                                                     F               1         First time derivative of HD ExctnPtfmSg6/s
         13     0.00000000000E+000                                                     F               1         First time derivative of HD ExctnPtfmSg7/s
         14     0.00000000000E+000                                                     F               1         First time derivative of HD ExctnPtfmSg8/s
         15     0.00000000000E+000                                                     F               1         First time derivative of HD ExctnPtfmSw1/s
         16     0.00000000000E+000                                                     F               1         First time derivative of HD ExctnPtfmSw2/s
         17     0.00000000000E+000                                                     F               1         First time derivative of HD ExctnPtfmHv1/s
         18     0.00000000000E+000                                                     F               1         First time derivative of HD ExctnPtfmHv2/s
         19     0.00000000000E+000                                                     F               1         First time derivative of HD ExctnPtfmHv3/s
         20     0.00000000000E+000                                                     F               1         First time derivative of HD ExctnPtfmHv4/s
         21     0.00000000000E+000                                                     F               1         First time derivative of HD ExctnPtfmHv5/s
         22     0.00000000000E+000                                                     F               1         First time derivative of HD ExctnPtfmHv6/s
         23     0.00000000000E+000                                                     F               1         First time derivative of HD ExctnPtfmHv7/s
         24     0.00000000000E+000                                                     F               1         First time derivative of HD ExctnPtfmHv8/s
         25     0.00000000000E+000                                                     F               1         First time derivative of HD ExctnPtfmR1/s
         26     0.00000000000E+000                                                     F               1         First time derivative of HD ExctnPtfmR2/s
         27     0.00000000000E+000                                                     F               1         First time derivative of HD ExctnPtfmR3/s
         28     0.00000000000E+000                                                     F               1         First time derivative of HD ExctnPtfmR4/s
         29     0.00000000000E+000                                                     F               1         First time derivative of HD ExctnPtfmR5/s
         30     0.00000000000E+000                                                     F               1         First time derivative of HD ExctnPtfmR6/s
         31     0.00000000000E+000                                                     F               1         First time derivative of HD ExctnPtfmR7/s
         32     0.00000000000E+000                                                     F               1         First time derivative of HD ExctnPtfmR8/s
         33     0.00000000000E+000                                                     F               1         First time derivative of HD ExctnPtfmP1/s
         34     0.00000000000E+000                                                     F               1         First time derivative of HD ExctnPtfmP2/s
         35     0.00000000000E+000                                                     F               1         First time derivative of HD ExctnPtfmP3/s
         36     0.00000000000E+000                                                     F               1         First time derivative of HD ExctnPtfmP4/s
         37     0.00000000000E+000                                                     F               1         First time derivative of HD ExctnPtfmP5/s
         38     0.00000000000E+000                                                     F               1         First time derivative of HD ExctnPtfmP6/s
         39     0.00000000000E+000                                                     F               1         First time derivative of HD ExctnPtfmP7/s
         40     0.00000000000E+000                                                     F               1         First time derivative of HD ExctnPtfmP8/s
         41     0.00000000000E+000                                                     F               1         First time derivative of HD ExctnPtfmY1/s
         42     0.00000000000E+000                                                     F               1         First time derivative of HD ExctnPtfmY2/s
         43     0.00000000000E+000                                                     F               1         First time derivative of HD RdtnPtfmSg1/s
         44     0.00000000000E+000                                                     F               1         First time derivative of HD RdtnPtfmSg2/s
         45     0.00000000000E+000                                                     F               1         First time derivative of HD RdtnPtfmSg3/s
         46     0.00000000000E+000                                                     F               1         First time derivative of HD RdtnPtfmSg4/s
         47     0.00000000000E+000                                                     F               1         First time derivative of HD RdtnPtfmSg5/s
         48     0.00000000000E+000                                                     F               1         First time derivative of HD RdtnPtfmSg6/s
         49     0.00000000000E+000                                                     F               1         First time derivative of HD RdtnPtfmSg7/s
         50     0.00000000000E+000                                                     F               1         First time derivative of HD RdtnPtfmSg8/s
         51     0.00000000000E+000                                                     F               1         First time derivative of HD RdtnPtfmSg9/s
         52     0.00000000000E+000                                                     F               1         First time derivative of HD RdtnPtfmSg10/s
         53     0.00000000000E+000                                                     F               1         First time derivative of HD RdtnPtfmSg11/s
         54     0.00000000000E+000                                                     F               1         First time derivative of HD RdtnPtfmSg12/s
         55     0.00000000000E+000                                                     F               1         First time derivative of HD RdtnPtfmSg13/s
         56     0.00000000000E+000                                                     F               1         First time derivative of HD RdtnPtfmSg14/s
         57     0.00000000000E+000                                                     F               1         First time derivative of HD RdtnPtfmSw1/s
         58     0.00000000000E+000                                                     F               1         First time derivative of HD RdtnPtfmSw2/s
         59     0.00000000000E+000                                                     F               1         First time derivative of HD RdtnPtfmSw3/s
         60     0.00000000000E+000                                                     F               1         First time derivative of HD RdtnPtfmSw4/s
         61     0.00000000000E+000                                                     F               1         First time derivative of HD RdtnPtfmSw5/s
         62     0.00000000000E+000                                                     F               1         First time derivative of HD RdtnPtfmSw6/s
         63     0.00000000000E+000                                                     F               1         First time derivative of HD RdtnPtfmSw7/s
         64     0.00000000000E+000                                                     F               1         First time derivative of HD RdtnPtfmSw8/s
         65     0.00000000000E+000                                                     F               1         First time derivative of HD RdtnPtfmSw9/s
         66     0.00000000000E+000                                                     F               1         First time derivative of HD RdtnPtfmSw10/s
         67     0.00000000000E+000                                                     F               1         First time derivative of HD RdtnPtfmSw11/s
         68     0.00000000000E+000                                                     F               1         First time derivative of HD RdtnPtfmSw12/s
         69     0.00000000000E+000                                                     F               1         First time derivative of HD RdtnPtfmSw13/s
         70     0.00000000000E+000                                                     F               1         First time derivative of HD RdtnPtfmSw14/s
         71     0.00000000000E+000                                                     F               1         First time derivative of HD RdtnPtfmHv1/s
         72     0.00000000000E+000                                                     F               1         First time derivative of HD RdtnPtfmHv2/s
         73     0.00000000000E+000                                                     F               1         First time derivative of HD RdtnPtfmHv3/s
         74     0.00000000000E+000                                                     F               1         First time derivative of HD RdtnPtfmHv4/s
         75     0.00000000000E+000                                                     F               1         First time derivative of HD RdtnPtfmHv5/s
         76     0.00000000000E+000                                                     F               1         First time derivative of HD RdtnPtfmHv6/s
         77     0.00000000000E+000                                                     F               1         First time derivative of HD RdtnPtfmR1/s
         78     0.00000000000E+000                                                     F               1         First time derivative of HD RdtnPtfmR2/s
         79     0.00000000000E+000                                                     F               1         First time derivative of HD RdtnPtfmR3/s
         80     0.00000000000E+000                                                     F               1         First time derivative of HD RdtnPtfmR4/s
         81     0.00000000000E+000                                                     F               1         First time derivative of HD RdtnPtfmR5/s
         82     0.00000000000E+000                                                     F               1         First time derivative of HD RdtnPtfmR6/s
         83     0.00000000000E+000                                                     F               1         First time derivative of HD RdtnPtfmR7/s
         84     0.00000000000E+000                                                     F               1         First time derivative of HD RdtnPtfmR8/s
         85     0.00000000000E+000                                                     F               1         First time derivative of HD RdtnPtfmR9/s
         86     0.00000000000E+000                                                     F               1         First time derivative of HD RdtnPtfmR10/s
         87    -1.07262656093E-003                                                     F               1         First time derivative of HD RdtnPtfmP1/s
         88     0.00000000000E+000                                                     F               1         First time derivative of HD RdtnPtfmP2/s
         89     0.00000000000E+000                                                     F               1         First time derivative of HD RdtnPtfmP3/s
         90     0.00000000000E+000                                                     F               1         First time derivative of HD RdtnPtfmP4/s
         91     0.00000000000E+000                                                     F               1         First time derivative of HD RdtnPtfmP5/s
         92     0.00000000000E+000                                                     F               1         First time derivative of HD RdtnPtfmP6/s
         93     0.00000000000E+000                                                     F               1         First time derivative of HD RdtnPtfmP7/s
         94    -1.07262656093E-003                                                     F               1         First time derivative of HD RdtnPtfmP8/s